     394
 i =    10000, time =     5000.000, E =     -1166.4483495754
 Mo         1.7091350895       -0.9806739553        9.8264826755
 Mo        -1.0054824730        2.6551136543       10.7321277405
 Mo        -1.5161794835        4.8880115443        9.4968144778
 Mo        -3.3217513844        7.7361307668        9.5813056808
 Mo        -4.8768415980       10.5853191662        9.5900106683
 Mo        -6.5765592044       13.4392442900        9.6949798656
 Mo        -8.3790706573       16.2408298247        9.7550136181
 Mo        -9.9401158501       19.0320991306        9.7391570562
 Mo         4.9816590826       -1.1074548592        9.6739490766
 Mo         3.4012450281        0.7546667575       10.6588098096
 Mo         2.7240194819        5.4230965913        9.7265276115
 Mo         0.2501011142        7.5635555240        9.5667316164
 Mo        -1.4491386290       10.6125302885        9.6234494550
 Mo        -3.2746153389       13.4405873648        9.5137447890
 Mo        -4.9858575544       16.3555114035        9.6022594623
 Mo        -6.6146607417       19.1078047587        9.6834081510
 Mo         8.2517009719       -0.9962841296        9.6734421164
 Mo         6.7146013701        1.7860627937        9.8631634087
 Mo         4.4656567284        3.0139570160        9.8413978592
 Mo         3.2604466090        7.8821380295        9.7098939227
 Mo         1.6429201928       10.5720827262        9.6843838974
 Mo         0.0562781110       13.4360332994        9.6644369686
 Mo        -1.6445447856       16.2780235481        9.5650911245
 Mo        -3.2270591703       19.3003582753        9.6439319368
 Mo        11.6654401996       -0.9661795870        9.5624000721
 Mo         9.8870128873        1.9232294309        9.7576051792
 Mo         8.1966320961        4.7065466428        9.7971124314
 Mo         6.6596618689        7.8317003718        9.8490005527
 Mo         5.0816533278       10.6540415697        9.7100331074
 Mo         3.3701724660       13.4950224464        9.6542089244
 Mo         1.5846214975       16.3173075187        9.6034911257
 Mo        -0.0111247409       19.2436968020        9.7353549323
 Mo        15.0246756484       -0.9901763556        9.6399429913
 Mo        13.4044597169        1.8892957034        9.5706941609
 Mo        11.5653374542        4.9767762801        9.5864507818
 Mo         9.9598065385        7.8170376516        9.6382896657
 Mo         8.2512997826       10.7283702788        9.6172706678
 Mo         6.6012440524       13.3867009306        9.5516528904
 Mo         5.0867109408       16.2361160265        9.6015834591
 Mo         3.3108550519       19.2571145618        9.6963032767
 Mo        18.3447874725       -0.9678654442        9.6701347947
 Mo        16.6611491376        1.8844611664        9.6654371588
 Mo        14.9864995678        4.7803559988        9.6289398720
 Mo        13.3368171788        7.7862616209        9.6648545291
 Mo        11.8146166825       10.5990029470        9.5078799003
 Mo        10.3726273872       13.7393318865        9.5523490942
 Mo         8.3924262356       16.4028625695        9.5385373646
 Mo         6.5912637085       19.1056043801        9.5689778874
 Mo        21.5698046062       -0.9412209262        9.5892857680
 Mo        20.0812383800        1.9716064906        9.6828489856
 Mo        18.2737955799        4.8097925148        9.6610991194
 Mo        16.7608899837        7.7208886109        9.6720983263
 Mo        15.0804770339       10.6574175687        9.6369999675
 Mo        13.0609810626       13.4441951784        9.5455265606
 Mo        11.5764375935       16.2890237449        9.4832793371
 Mo        10.0694735886       19.3471574290        9.5624605861
 Mo        24.9253037738       -0.8041272957        9.7516019345
 Mo        23.2901043115        1.9753889537        9.7303066496
 Mo        21.7531430267        4.7108420127        9.6233971112
 Mo        20.0556729672        7.7577011997        9.5838776895
 Mo        18.2945686945       10.5309230371        9.6930709216
 Mo        16.7025610266       13.2123948900        9.6954846862
 Mo        14.9420701590       16.3992231495        9.5945205254
 Mo        13.2394554069       19.2456685392        9.7532803714
 Mo        -0.0000020000        1.9208150000        3.8628560000
 Mo        -1.6634770000        4.8020370000        3.8628560000
 Mo        -3.3269520000        7.6832590000        3.8628560000
 Mo        -4.9904270000       10.5644810000        3.8628560000
 Mo        -6.6539030000       13.4457030000        3.8628560000
 Mo        -8.3173780000       16.3269230000        3.8628560000
 Mo        -9.9808530000       19.2081450000        3.8628560000
 Mo       -11.6443280000       22.0893670000        3.8628560000
 Mo         3.3269470000        1.9208150000        3.8628560000
 Mo         1.6634720000        4.8020370000        3.8628560000
 Mo        -0.0000040000        7.6832590000        3.8628560000
 Mo        -1.6634790000       10.5644810000        3.8628560000
 Mo        -3.3269540000       13.4457030000        3.8628560000
 Mo        -4.9904290000       16.3269230000        3.8628560000
 Mo        -6.6539040000       19.2081450000        3.8628560000
 Mo        -8.3173790000       22.0893670000        3.8628560000
 Mo         6.6538960000        1.9208150000        3.8628560000
 Mo         4.9904210000        4.8020370000        3.8628560000
 Mo         3.3269460000        7.6832590000        3.8628560000
 Mo         1.6634700000       10.5644810000        3.8628560000
 Mo        -0.0000050000       13.4457030000        3.8628560000
 Mo        -1.6634800000       16.3269230000        3.8628560000
 Mo        -3.3269550000       19.2081450000        3.8628560000
 Mo        -4.9904300000       22.0893670000        3.8628560000
 Mo         9.9808440000        1.9208150000        3.8628560000
 Mo         8.3173690000        4.8020370000        3.8628560000
 Mo         6.6538940000        7.6832590000        3.8628560000
 Mo         4.9904190000       10.5644810000        3.8628560000
 Mo         3.3269440000       13.4457030000        3.8628560000
 Mo         1.6634690000       16.3269230000        3.8628560000
 Mo        -0.0000060000       19.2081450000        3.8628560000
 Mo        -1.6634820000       22.0893670000        3.8628560000
 Mo        13.3077940000        1.9208150000        3.8628560000
 Mo        11.6443190000        4.8020370000        3.8628560000
 Mo         9.9808440000        7.6832590000        3.8628560000
 Mo         8.3173690000       10.5644810000        3.8628560000
 Mo         6.6538930000       13.4457030000        3.8628560000
 Mo         4.9904180000       16.3269230000        3.8628560000
 Mo         3.3269430000       19.2081450000        3.8628560000
 Mo         1.6634680000       22.0893670000        3.8628560000
 Mo        16.6347430000        1.9208150000        3.8628560000
 Mo        14.9712680000        4.8020370000        3.8628560000
 Mo        13.3077930000        7.6832590000        3.8628560000
 Mo        11.6443180000       10.5644810000        3.8628560000
 Mo         9.9808430000       13.4457030000        3.8628560000
 Mo         8.3173670000       16.3269230000        3.8628560000
 Mo         6.6538920000       19.2081450000        3.8628560000
 Mo         4.9904170000       22.0893670000        3.8628560000
 Mo        19.9616910000        1.9208150000        3.8628560000
 Mo        18.2982160000        4.8020370000        3.8628560000
 Mo        16.6347410000        7.6832590000        3.8628560000
 Mo        14.9712660000       10.5644810000        3.8628560000
 Mo        13.3077910000       13.4457030000        3.8628560000
 Mo        11.6443150000       16.3269230000        3.8628560000
 Mo         9.9808400000       19.2081450000        3.8628560000
 Mo         8.3173650000       22.0893670000        3.8628560000
 Mo        23.2886410000        1.9208150000        3.8628560000
 Mo        21.6251660000        4.8020370000        3.8628560000
 Mo        19.9616910000        7.6832590000        3.8628560000
 Mo        18.2982160000       10.5644810000        3.8628560000
 Mo        16.6347410000       13.4457030000        3.8628560000
 Mo        14.9712650000       16.3269230000        3.8628560000
 Mo        13.3077900000       19.2081450000        3.8628560000
 Mo        11.6443150000       22.0893670000        3.8628560000
 Se        -0.0428827104        0.1799710144       11.4599042149
 Se        -3.1342317064        2.4955726186       14.3442463529
 Se        -3.2401275670        5.8248622254       11.2382468171
 Se        -4.9032755361        8.7338430129       11.2977243113
 Se        -6.5084262540       11.4696495691       11.3964257408
 Se        -8.3485042256       14.3773123334       11.4473504160
 Se       -10.0606625843       17.2489483803       11.4789128163
 Se       -11.6745425108       20.1016393788       11.4772863840
 Se         3.3533296543        0.4254030758       13.1648178293
 Se        -1.2248753895        3.1909842283       13.1928844464
 Se         0.4398890363        5.5630107813       11.3380596728
 Se        -1.5718694438        8.6096733805       11.1240332890
 Se        -3.2956218357       11.5860566710       11.1794904670
 Se        -4.9344556399       14.4962140193       11.2995638177
 Se        -6.7792887504       17.1828097311       11.2724968696
 Se        -8.2928822984       20.0829763703       11.4212143086
 Se         6.7115677823       -0.1345018938       11.4370022432
 Se         2.8188895961        4.1353238154       13.4486821031
 Se         4.3355850846        4.7318792551       11.7168715802
 Se         1.6145568202        8.7642495780       11.4157868364
 Se         0.0162254592       11.5792743749       11.4154139289
 Se        -1.7333785711       14.4327671494       11.2625062419
 Se        -3.2213270436       17.3422132366       11.2002260289
 Se        -4.9577971612       20.1815638862       11.3456987291
 Se         9.9238114714        0.0110864797       11.3306093432
 Se         8.2280507485        2.7911335731       11.6849892946
 Se         6.6444012337        5.8946272200       11.4237826608
 Se         4.8295629898        8.7194921124       11.5300510904
 Se         3.4273931791       11.6550738570       11.3999655818
 Se         1.7722175395       14.4450529989       11.3321841472
 Se        -0.0939351909       17.2503654506       11.3530416415
 Se        -1.6493214815       20.2118325514       11.4279569531
 Se        13.2062501835       -0.0168660328       11.2528228857
 Se        11.6058076353        2.9549411458       11.1940717713
 Se         9.9080729779        5.8540501732       11.3293101253
 Se         8.3149505117        8.9151869751       11.3057085859
 Se         6.6575343783       11.7117697032       11.3433176587
 Se         5.1120466114       14.4076053237       11.3535273133
 Se         3.3337381171       17.3175087666       11.3302911027
 Se         1.6486915013       20.2309631299       11.3817408062
 Se        16.5524191311       -0.0124220100       11.3580009228
 Se        14.9600660037        2.8112422495       11.2920133021
 Se        13.2812599101        5.8123327965       11.2426660100
 Se        11.6450591618        8.8135711067       11.3540396307
 Se        10.1836913373       11.6169182206       11.1750153046
 Se         8.4127932447       14.3611774161       11.1605582922
 Se         6.7861747853       17.1953348395       11.3242883959
 Se         5.1132319982       20.1018863945       11.3067334872
 Se        19.9582584915        0.0325858787       11.3570644814
 Se        18.3188096752        2.8791435739       11.3654818273
 Se        16.6545684509        5.6996056660       11.4294297203
 Se        15.1051124697        8.7788958940       11.2931942621
 Se        13.2113155076       11.4795990843       11.3823245571
 Se        10.9868156416       14.4780021864       13.5516522686
 Se        10.0245655309       17.3671924342       11.2316966837
 Se         8.2057168418       20.2000591272       11.2626883047
 Se        23.1194729062       -0.0329588748       11.2517539219
 Se        21.6301110520        2.8798196909       11.3505721567
 Se        20.0370663338        5.8209971025       11.2453341012
 Se        18.3139379628        8.6882929991       11.4383306657
 Se        16.8864704239       11.3913614854       11.4930106704
 Se        14.8377717071       14.3380608793       11.2724384648
 Se        13.3370063755       17.1440730606       11.2690929159
 Se        11.5255622897       20.4376845153       11.3636084906
 Se         1.6634760000        0.9604060000        5.5354720000
 Se         0.0000010000        3.8416280000        5.5354720000
 Se        -1.6634740000        6.7228500000        5.5354720000
 Se        -3.3269500000        9.6040720000        5.5354720000
 Se        -4.9904250000       12.4852930000        5.5354720000
 Se        -6.6539000000       15.3665150000        5.5354720000
 Se        -8.3173750000       18.2477380000        5.5354720000
 Se        -9.9808500000       21.1289600000        5.5354720000
 Se         4.9904250000        0.9604060000        5.5354720000
 Se         3.3269490000        3.8416280000        5.5354720000
 Se         1.6634740000        6.7228500000        5.5354720000
 Se        -0.0000010000        9.6040720000        5.5354720000
 Se        -1.6634760000       12.4852930000        5.5354720000
 Se        -3.3269510000       15.3665150000        5.5354720000
 Se        -4.9904270000       18.2477380000        5.5354720000
 Se        -6.6539020000       21.1289600000        5.5354720000
 Se         8.3173730000        0.9604060000        5.5354720000
 Se         6.6538980000        3.8416280000        5.5354720000
 Se         4.9904230000        6.7228500000        5.5354720000
 Se         3.3269480000        9.6040720000        5.5354720000
 Se         1.6634730000       12.4852930000        5.5354720000
 Se        -0.0000030000       15.3665150000        5.5354720000
 Se        -1.6634780000       18.2477380000        5.5354720000
 Se        -3.3269530000       21.1289600000        5.5354720000
 Se        11.6443220000        0.9604060000        5.5354720000
 Se         9.9808470000        3.8416280000        5.5354720000
 Se         8.3173720000        6.7228500000        5.5354720000
 Se         6.6538970000        9.6040720000        5.5354720000
 Se         4.9904220000       12.4852930000        5.5354720000
 Se         3.3269460000       15.3665150000        5.5354720000
 Se         1.6634710000       18.2477380000        5.5354720000
 Se        -0.0000040000       21.1289600000        5.5354720000
 Se        14.9712720000        0.9604060000        5.5354720000
 Se        13.3077960000        3.8416280000        5.5354720000
 Se        11.6443210000        6.7228500000        5.5354720000
 Se         9.9808450000        9.6040720000        5.5354720000
 Se         8.3173700000       12.4852930000        5.5354720000
 Se         6.6538950000       15.3665150000        5.5354720000
 Se         4.9904200000       18.2477380000        5.5354720000
 Se         3.3269450000       21.1289600000        5.5354720000
 Se        18.2982200000        0.9604060000        5.5354720000
 Se        16.6347450000        3.8416280000        5.5354720000
 Se        14.9712700000        6.7228500000        5.5354720000
 Se        13.3077940000        9.6040720000        5.5354720000
 Se        11.6443190000       12.4852930000        5.5354720000
 Se         9.9808440000       15.3665150000        5.5354720000
 Se         8.3173690000       18.2477380000        5.5354720000
 Se         6.6538930000       21.1289600000        5.5354720000
 Se        21.6251700000        0.9604060000        5.5354720000
 Se        19.9616950000        3.8416280000        5.5354720000
 Se        18.2982200000        6.7228500000        5.5354720000
 Se        16.6347450000        9.6040720000        5.5354720000
 Se        14.9712690000       12.4852930000        5.5354720000
 Se        13.3077940000       15.3665150000        5.5354720000
 Se        11.6443190000       18.2477380000        5.5354720000
 Se         9.9808440000       21.1289600000        5.5354720000
 Se        24.9521180000        0.9604060000        5.5354720000
 Se        23.2886430000        3.8416280000        5.5354720000
 Se        21.6251680000        6.7228500000        5.5354720000
 Se        19.9616930000        9.6040720000        5.5354720000
 Se        18.2982180000       12.4852930000        5.5354720000
 Se        16.6347430000       15.3665150000        5.5354720000
 Se        14.9712670000       18.2477380000        5.5354720000
 Se        13.3077920000       21.1289600000        5.5354720000
 Se         0.0998415476        0.0057015236        8.0527547209
 Se        -1.5147845866        2.9532661714        7.7015642232
 Se        -3.2605313178        5.8374429734        7.8993791700
 Se        -4.9915259609        8.6968699745        7.8438965462
 Se        -6.5919524856       11.4872852641        8.0216683308
 Se        -8.3072099966       14.2389916030        8.0545708609
 Se        -9.8835573100       17.2009859931        7.9378629372
 Se       -11.6018747100       20.0565474641        8.1659457903
 Se         3.1598511125       -0.2242886767        7.8117493055
 Se         0.6236538167        2.1838658643        8.4191637830
 Se         0.5605238179        5.4304908329        8.1826165049
 Se        -1.4576341072        8.5316708753        7.8607937945
 Se        -3.2073988191       11.4984349680        7.8963222755
 Se        -5.0224899027       14.3847226550        7.9303974981
 Se        -6.7378233802       17.2410792546        8.0309369385
 Se        -8.2463634073       20.0188821278        7.9426784719
 Se         6.5469187485        0.1015940461        8.0878014454
 Se         3.3147770366        2.1294848954        7.8512461988
 Se         4.4399391830        4.8662595579        7.8785503202
 Se         1.6084827114        8.5729804264        7.8281161726
 Se         0.0636628824       11.5840961048        7.8829820201
 Se        -1.5944590422       14.3172130990        7.8813728970
 Se        -3.3256322383       17.3526315169        7.9195707456
 Se        -4.9432549101       20.2145297390        7.9576870745
 Se         9.7764631940       -0.0072162538        8.0330507056
 Se         8.0854700760        2.9461811394        8.0665277062
 Se         6.5079170251        5.8409106522        7.9874404271
 Se         4.9373718009        8.6662710782        8.1030079733
 Se         3.2291229589       11.4718315165        8.0102448748
 Se         1.7230990834       14.3084412928        7.9360682875
 Se        -0.1299182951       17.1808008955        7.8354485315
 Se        -1.6314732626       20.1185378566        7.9731761900
 Se        13.4093109282       -0.1261219585        7.8351483572
 Se        11.6281839563        2.9139430650        8.0024795313
 Se         9.7830241290        5.8242513831        7.9549848705
 Se         8.2677227436        8.7600329722        7.9364014743
 Se         6.6091181111       11.5348751582        7.8335612551
 Se         4.9555065436       14.4701731016        7.8938113304
 Se         3.2640237868       17.3111229357        7.9845660346
 Se         1.7405471507       20.1460060635        7.9923873508
 Se        16.7768107157        0.0764522363        7.9045870383
 Se        15.0792484767        2.8507409597        7.8864078451
 Se        13.3430804370        5.7671089717        8.0230883184
 Se        11.7408313061        8.6119634626        7.8974218921
 Se         9.8703138918       11.6453158646        7.8627672805
 Se         8.2381592082       14.5301285130        7.8770055695
 Se         6.5952095691       17.1267787034        7.8519571073
 Se         5.0192104757       20.2535558305        7.9165477630
 Se        20.0670852003        0.0661835451        7.8813085710
 Se        18.2566923916        2.7458712862        7.9182463127
 Se        16.6337745412        5.8143774590        7.9759323087
 Se        15.0526278634        8.6597137183        8.0653000621
 Se        13.4661507671       11.6102064233        7.8412648024
 Se        11.6524459351       14.5259786325        7.6152277552
 Se        10.0376915931       17.4586583120        7.9557276537
 Se         8.3031545180       20.2201257243        7.8750266073
 Se        23.3125653347        0.0108428396        7.9539313649
 Se        21.6924799137        2.7769433493        7.9226537515
 Se        20.0127390344        5.7287471402        7.9677960501
 Se        18.3350877697        8.6662769410        8.0200090938
 Se        16.6872002587       11.4362352357        7.8286931945
 Se        15.0117154547       14.3617066061        8.1000623284
 Se        13.3009402549       17.4396806648        7.9273556889
 Se        11.7908524836       20.3271451326        8.0177190098
 Se         1.6634760000        0.9604060000        2.1902390000
 Se         0.0000010000        3.8416280000        2.1902390000
 Se        -1.6634740000        6.7228500000        2.1902390000
 Se        -3.3269500000        9.6040720000        2.1902390000
 Se        -4.9904250000       12.4852930000        2.1902390000
 Se        -6.6539000000       15.3665150000        2.1902390000
 Se        -8.3173750000       18.2477380000        2.1902390000
 Se        -9.9808500000       21.1289600000        2.1902390000
 Se         4.9904250000        0.9604060000        2.1902390000
 Se         3.3269490000        3.8416280000        2.1902390000
 Se         1.6634740000        6.7228500000        2.1902390000
 Se        -0.0000010000        9.6040720000        2.1902390000
 Se        -1.6634760000       12.4852930000        2.1902390000
 Se        -3.3269510000       15.3665150000        2.1902390000
 Se        -4.9904270000       18.2477380000        2.1902390000
 Se        -6.6539020000       21.1289600000        2.1902390000
 Se         8.3173730000        0.9604060000        2.1902390000
 Se         6.6538980000        3.8416280000        2.1902390000
 Se         4.9904230000        6.7228500000        2.1902390000
 Se         3.3269480000        9.6040720000        2.1902390000
 Se         1.6634730000       12.4852930000        2.1902390000
 Se        -0.0000030000       15.3665150000        2.1902390000
 Se        -1.6634780000       18.2477380000        2.1902390000
 Se        -3.3269530000       21.1289600000        2.1902390000
 Se        11.6443220000        0.9604060000        2.1902390000
 Se         9.9808470000        3.8416280000        2.1902390000
 Se         8.3173720000        6.7228500000        2.1902390000
 Se         6.6538970000        9.6040720000        2.1902390000
 Se         4.9904220000       12.4852930000        2.1902390000
 Se         3.3269460000       15.3665150000        2.1902390000
 Se         1.6634710000       18.2477380000        2.1902390000
 Se        -0.0000040000       21.1289600000        2.1902390000
 Se        14.9712720000        0.9604060000        2.1902390000
 Se        13.3077960000        3.8416280000        2.1902390000
 Se        11.6443210000        6.7228500000        2.1902390000
 Se         9.9808450000        9.6040720000        2.1902390000
 Se         8.3173700000       12.4852930000        2.1902390000
 Se         6.6538950000       15.3665150000        2.1902390000
 Se         4.9904200000       18.2477380000        2.1902390000
 Se         3.3269450000       21.1289600000        2.1902390000
 Se        18.2982200000        0.9604060000        2.1902390000
 Se        16.6347450000        3.8416280000        2.1902390000
 Se        14.9712700000        6.7228500000        2.1902390000
 Se        13.3077940000        9.6040720000        2.1902390000
 Se        11.6443190000       12.4852930000        2.1902390000
 Se         9.9808440000       15.3665150000        2.1902390000
 Se         8.3173690000       18.2477380000        2.1902390000
 Se         6.6538930000       21.1289600000        2.1902390000
 Se        21.6251700000        0.9604060000        2.1902390000
 Se        19.9616950000        3.8416280000        2.1902390000
 Se        18.2982200000        6.7228500000        2.1902390000
 Se        16.6347450000        9.6040720000        2.1902390000
 Se        14.9712690000       12.4852930000        2.1902390000
 Se        13.3077940000       15.3665150000        2.1902390000
 Se        11.6443190000       18.2477380000        2.1902390000
 Se         9.9808440000       21.1289600000        2.1902390000
 Se        24.9521180000        0.9604060000        2.1902390000
 Se        23.2886430000        3.8416280000        2.1902390000
 Se        21.6251680000        6.7228500000        2.1902390000
 Se        19.9616930000        9.6040720000        2.1902390000
 Se        18.2982180000       12.4852930000        2.1902390000
 Se        16.6347430000       15.3665150000        2.1902390000
 Se        14.9712670000       18.2477380000        2.1902390000
 Se        13.3077920000       21.1289600000        2.1902390000
 Se         1.6326305058        2.2254944199       12.9664197579
 In        -1.8588379222       10.4493971173       13.0244330487
 In        13.1194596680       19.1528895893       13.0910008192
 In        25.2601136860        6.1951934729       13.2382327537
 In        13.3854047747       13.2569402293       13.3291580671
 In         8.8728112619       12.4917232864       13.1731230405
 Se        22.2679843594        4.3693793946       14.8559382555
 In        -4.9414657917        6.5321261112       13.2359335313
 In         8.9457216470       16.2579887938       13.2950561313
 In        11.5997849862        0.9930291413       13.1119070793
